ITEM: TIMESTEP
0          0
ITEM: NUMBER OF ATOMS
0
ITEM: BOX BOUNDS
0 10.845
0 10.845
0 10.845
ITEM: ATOMS id type x y z
ITEM: TIMESTEP
1         10
ITEM: NUMBER OF ATOMS
0
ITEM: BOX BOUNDS
0 10.845
0 10.845
0 10.845
ITEM: ATOMS id type x y z
